 Gaussian 16, Revision C.01,
 Gaussian 16:  ES64L-G16RevC.01  3-Jul-2019

 ----------------------------------------------------------------------
 #p td=(nstates=50) b3lyp empiricaldispersion=gd3bj scrf=(smd,solvent=a
 cetonitrile) def2svp
 ----------------------------------------------------------------------

 -----
 Title
 -----
 Symbolic Z-matrix:
 Charge =  0 Multiplicity = 1

                         Standard orientation:
 ---------------------------------------------------------------------
 Center     Atomic      Atomic             Coordinates (Angstroms)
 Number     Number       Type             X           Y           Z
 ---------------------------------------------------------------------
      1          6           0      -11.421353    1.206777   -0.062354
      2          6           0      -10.033540    1.417191   -0.052381
      3          6           0      -11.942713   -0.084725   -0.042351
      4          6           0       -9.149878    0.305867   -0.021944
      5          6           0      -11.084755   -1.196734   -0.011817
      6          6           0       -9.703182   -0.992547   -0.001763
      7          1           0      -12.107405    2.052958   -0.085525
      8          1           0      -13.022241   -0.249651   -0.049952
      9          8           0      -11.679186   -2.419138    0.005992
     10          1           0       -9.028549   -1.846268    0.021629
     11          6           0      -10.858990   -3.570767    0.040867
     12          1           0      -11.534533   -4.437018    0.051160
     13          1           0      -10.228182   -3.598173    0.947166
     14          1           0      -10.206041   -3.637030   -0.847523
     15          8           0       -9.465183    2.651274   -0.070571
     16          6           0      -10.296354    3.795513   -0.106494
     17          1           0       -9.626816    4.666180   -0.117053
     18          1           0      -10.948562    3.855673    0.782299
     19          1           0      -10.925454    3.815791   -1.013607
     20          6           0       -7.708336    0.545977   -0.013519
     21          6           0       -6.738506   -0.400802    0.010721
     22          1           0       -7.427052    1.600246   -0.029575
     23          6           0       -5.300413   -0.159729    0.017740
     24          1           0       -7.018580   -1.455384    0.025461
     25          6           0       -4.740818    1.133309    0.006376
     26          6           0       -3.362678    1.343213    0.012267
     27          6           0       -2.468931    0.235462    0.029432
     28          6           0       -4.407007   -1.267429    0.036314
     29          6           0       -3.028976   -1.057947    0.041751
     30          1           0       -5.411854    1.989626   -0.007125
     31          1           0       -2.358018   -1.914300    0.055709
     32          8           0       -4.973785   -2.502378    0.047429
     33          6           0       -4.139925   -3.644895    0.070359
     34          1           0       -4.807172   -4.517252    0.076874
     35          1           0       -3.506344   -3.670414    0.974179
     36          1           0       -3.491187   -3.695665   -0.821525
     37          8           0       -2.796387    2.578128    0.001696
     38          6           0       -3.630347    3.720720   -0.019663
     39          1           0       -2.963067    4.593042   -0.025656
     40          1           0       -4.278575    3.770515    0.872620
     41          1           0       -4.264309    3.747038   -0.923159
     42          6           0       -1.032506    0.476351    0.031897
     43          6           0       -0.060680   -0.471436    0.035434
     44          1           0       -0.751805    1.530870    0.027998
     45          6           0        1.375553   -0.229573    0.035130
     46          1           0       -0.341077   -1.526034    0.036031
     47          6           0        1.934483    1.064301    0.043107
     48          6           0        3.312282    1.274965    0.039783
     49          6           0        4.206747    0.167672    0.027704
     50          6           0        2.270312   -1.336972    0.024787
     51          6           0        3.648030   -1.126263    0.020887
     52          1           0        1.262877    1.920187    0.051970
     53          1           0        4.319821   -1.982054    0.012668
     54          8           0        1.704526   -2.572106    0.018487
     55          8           0        3.877890    2.510130    0.046783
     56          6           0        3.043215    3.652363    0.062228
     57          1           0        3.710013    4.525051    0.066458
     58          1           0        2.407324    3.681567    0.964265
     59          1           0        2.396908    3.698430   -0.831636
     60          6           0        2.539186   -3.714327    0.005504
     61          1           0        1.872438   -4.587061    0.002008
     62          1           0        3.184767   -3.759044    0.899985
     63          1           0        3.175878   -3.744904   -0.895934
     64          6           0        5.643251    0.409869    0.021960
     65          6           0        6.615568   -0.536152   -0.000805
     66          1           0        5.922680    1.464658    0.035485
     67          6           0        8.053017   -0.291370   -0.008466
     68          1           0        6.337010   -1.591071   -0.017124
     69          6           0        8.608626    1.002681    0.016477
     70          6           0        9.987571    1.216193    0.006619
     71          6           0       10.878823    0.111110   -0.029420
     72          6           0        8.947855   -1.396975   -0.043536
     73          6           0       10.326357   -1.182082   -0.053639
     74          1           0        7.935363    1.856853    0.043782
     75          1           0       11.002490   -2.034660   -0.079916
     76          8           0        8.384376   -2.632981   -0.065637
     77          8           0       10.550390    2.452523    0.029009
     78          6           0        9.712596    3.591870    0.069334
     79          1           0       10.376925    4.466410    0.081757
     80          1           0        9.084041    3.605508    0.976928
     81          1           0        9.058730    3.650525   -0.818310
     82          6           0        9.220603   -3.773472   -0.103742
     83          1           0        8.555104   -4.647104   -0.115916
     84          1           0        9.873284   -3.831695    0.784786
     85          1           0        9.849951   -3.788620   -1.010734
     86          6           0       12.327167    0.348127   -0.040303
     87          6           0       13.298586   -0.579816   -0.090827
     88          1           0       12.615920    1.401446   -0.004242
     89          1           0       13.093754   -1.654055   -0.130695
     90          1           0       14.350760   -0.281834   -0.093427
 ---------------------------------------------------------------------

 SCF Done:  E(RB3LYP) =  -2149.88163945     A.U. after   12 cycles

 Excitation energies and oscillator strengths:

 Excited State   1:      Singlet-A      2.1545 eV  575.48 nm  f=2.6466  <S**2>=0.000
     173 ->174         0.70278
 This state for optimization and/or second-order correction.
 Total Energy, E(TD-HF/TD-DFT) =  -2149.80246427
 Copying the excited state density for this state as the 1-particle RhoCI density.

 Excited State   2:      Singlet-A      2.6626 eV  465.65 nm  f=0.0062  <S**2>=0.000
     172 ->174         0.64976
     173 ->175        -0.25788

 Excited State   3:      Singlet-A      2.8757 eV  431.15 nm  f=0.0022  <S**2>=0.000
     172 ->174         0.25604
     173 ->175         0.64447

 Excited State   4:      Singlet-A      2.9791 eV  416.18 nm  f=0.0024  <S**2>=0.000
     170 ->174         0.14370
     171 ->174         0.67136

 Excited State   5:      Singlet-A      3.0614 eV  404.99 nm  f=0.0000  <S**2>=0.000
     170 ->174         0.67692
     171 ->174        -0.13811

 Excited State   6:      Singlet-A      3.3193 eV  373.53 nm  f=0.1236  <S**2>=0.000
     169 ->174         0.21013
     172 ->175         0.64862

 Excited State   7:      Singlet-A      3.3936 eV  365.35 nm  f=0.4349  <S**2>=0.000
     169 ->174         0.64606
     172 ->175        -0.22872

 Excited State   8:      Singlet-A      3.5342 eV  350.82 nm  f=0.0048  <S**2>=0.000
     167 ->174        -0.22399
     169 ->174        -0.11595
     173 ->176         0.64167

 Excited State   9:      Singlet-A      3.5544 eV  348.82 nm  f=0.0001  <S**2>=0.000
     168 ->174         0.64968
     171 ->175         0.18305

 Excited State  10:      Singlet-A      3.6434 eV  340.30 nm  f=0.0040  <S**2>=0.000
     168 ->174        -0.19378
     171 ->175         0.65491

 Excited State  11:      Singlet-A      3.7304 eV  332.36 nm  f=0.0010  <S**2>=0.000
     170 ->175         0.67622

 Excited State  12:      Singlet-A      3.9411 eV  314.59 nm  f=0.0416  <S**2>=0.000
     167 ->174         0.64450
     173 ->176         0.22232

 Excited State  13:      Singlet-A      4.0186 eV  308.52 nm  f=0.0003  <S**2>=0.000
     166 ->174        -0.18811
     167 ->175        -0.11042
     172 ->176         0.62393
     173 ->177        -0.14376

 Excited State  14:      Singlet-A      4.0674 eV  304.82 nm  f=0.0008  <S**2>=0.000
     169 ->175         0.66080
     173 ->177        -0.16168

 Excited State  15:      Singlet-A      4.1712 eV  297.24 nm  f=0.0012  <S**2>=0.000
     166 ->174         0.25909
     169 ->175         0.15937
     172 ->176         0.24442
     173 ->177         0.57111

 Excited State  16:      Singlet-A      4.2233 eV  293.57 nm  f=0.1137  <S**2>=0.000
     168 ->175         0.65809
     171 ->176        -0.12747

 Excited State  17:      Singlet-A      4.3515 eV  284.92 nm  f=0.0278  <S**2>=0.000
     166 ->174         0.29230
     168 ->175         0.10905
     171 ->176         0.55886
     172 ->177        -0.10169
     173 ->177        -0.12435

 Excited State  18:      Singlet-A      4.3956 eV  282.07 nm  f=0.0277  <S**2>=0.000
     166 ->174         0.51513
     167 ->175        -0.14844
     168 ->175        -0.10816
     171 ->176        -0.33161
     173 ->177        -0.22663

 Excited State  19:      Singlet-A      4.4531 eV  278.42 nm  f=0.0002  <S**2>=0.000
     170 ->176         0.65477
     173 ->180         0.13662

 Excited State  20:      Singlet-A      4.5690 eV  271.36 nm  f=0.0039  <S**2>=0.000
     165 ->174        -0.12567
     167 ->175         0.63692
     173 ->177        -0.10764

 Excited State  21:      Singlet-A      4.6625 eV  265.92 nm  f=0.0188  <S**2>=0.000
     165 ->174         0.14230
     166 ->174         0.11459
     167 ->175         0.11667
     169 ->176        -0.15450
     172 ->177         0.50814
     173 ->177        -0.10574
     173 ->178        -0.14449
     173 ->181        -0.28604

 Excited State  22:      Singlet-A      4.7399 eV  261.57 nm  f=0.0346  <S**2>=0.000
     166 ->175         0.11532
     169 ->176         0.33524
     172 ->177         0.15359
     173 ->178        -0.15852
     173 ->179        -0.29932
     173 ->180        -0.33393
     173 ->181         0.22486

 Excited State  23:      Singlet-A      4.7869 eV  259.01 nm  f=0.1523  <S**2>=0.000
     171 ->176        -0.10013
     171 ->177        -0.10128
     172 ->177        -0.19688
     173 ->178        -0.20985
     173 ->179         0.44961
     173 ->180        -0.36082

 Excited State  24:      Singlet-A      4.8097 eV  257.78 nm  f=0.0517  <S**2>=0.000
     168 ->176         0.12335
     170 ->176         0.10066
     173 ->178         0.54930
     173 ->180        -0.29408
     173 ->181        -0.18613

 Excited State  25:      Singlet-A      4.8468 eV  255.81 nm  f=0.0398  <S**2>=0.000
     165 ->174        -0.11832
     169 ->176         0.39744
     172 ->177         0.27269
     173 ->178         0.16487
     173 ->179         0.33625
     173 ->180         0.19778
     173 ->181         0.18683

 Excited State  26:      Singlet-A      4.8678 eV  254.70 nm  f=0.0008  <S**2>=0.000
     169 ->176        -0.39127
     172 ->177         0.18007
     173 ->179         0.11677
     173 ->180        -0.11701
     173 ->181         0.47624

 Excited State  27:      Singlet-A      4.8910 eV  253.50 nm  f=0.0007  <S**2>=0.000
     165 ->174         0.54277
     168 ->176         0.30709
     169 ->176         0.10093
     172 ->177        -0.10901
     173 ->180         0.15610
     173 ->182        -0.11336

 Excited State  28:      Singlet-A      4.9609 eV  249.92 nm  f=0.0005  <S**2>=0.000
     164 ->174         0.10434
     165 ->174        -0.29446
     168 ->176         0.55578
     171 ->177        -0.10891
     173 ->178        -0.13931

 Excited State  29:      Singlet-A      5.0062 eV  247.66 nm  f=0.0079  <S**2>=0.000
     164 ->174         0.10307
     166 ->175         0.62706
     171 ->177        -0.11468
     172 ->177        -0.10551
     173 ->180         0.12709

 Excited State  30:      Singlet-A      5.0848 eV  243.84 nm  f=0.0008  <S**2>=0.000
     164 ->174        -0.19218
     166 ->175         0.16899
     168 ->176         0.15197
     171 ->177         0.57521
     173 ->180        -0.13002

 Excited State  31:      Singlet-A      5.1285 eV  241.75 nm  f=0.0069  <S**2>=0.000
     162 ->174        -0.11526
     163 ->174        -0.15062
     164 ->174         0.57843
     171 ->177         0.26327

 Excited State  32:      Singlet-A      5.1782 eV  239.44 nm  f=0.0145  <S**2>=0.000
     163 ->174         0.16386
     170 ->177         0.57678
     172 ->180        -0.23880
     173 ->179        -0.12492

 Excited State  33:      Singlet-A      5.2008 eV  238.39 nm  f=0.0025  <S**2>=0.000
     162 ->174         0.52856
     163 ->174        -0.38162
     170 ->177         0.19834

 Excited State  34:      Singlet-A      5.2520 eV  236.07 nm  f=0.0049  <S**2>=0.000
     162 ->174         0.10010
     163 ->174         0.17946
     167 ->176        -0.16646
     171 ->180        -0.10092
     172 ->178        -0.22930
     172 ->179         0.40908
     172 ->181        -0.40224

 Excited State  35:      Singlet-A      5.2711 eV  235.22 nm  f=0.0050  <S**2>=0.000
     162 ->174         0.33972
     163 ->174         0.38714
     163 ->175         0.11481
     164 ->174         0.11484
     170 ->177        -0.14341
     172 ->178         0.12131
     172 ->181         0.13266
     173 ->182        -0.31413

 Excited State  36:      Singlet-A      5.2798 eV  234.83 nm  f=0.0248  <S**2>=0.000
     167 ->176         0.47430
     170 ->177        -0.17128
     172 ->180        -0.23722
     172 ->181        -0.12011
     173 ->182         0.33894

 Excited State  37:      Singlet-A      5.3090 eV  233.54 nm  f=0.0021  <S**2>=0.000
     163 ->174         0.13148
     167 ->176         0.18163
     170 ->177         0.13248
     171 ->181         0.10423
     172 ->178         0.35624
     172 ->179         0.15160
     172 ->180         0.43989
     173 ->182         0.16900

 Excited State  38:      Singlet-A      5.3131 eV  233.36 nm  f=0.0321  <S**2>=0.000
     162 ->174         0.18005
     163 ->174         0.22627
     164 ->174         0.16338
     167 ->176        -0.28042
     172 ->179        -0.20684
     172 ->181         0.13419
     173 ->182         0.40639

 Excited State  39:      Singlet-A      5.3669 eV  231.02 nm  f=0.1645  <S**2>=0.000
     165 ->175        -0.10746
     167 ->176        -0.24812
     171 ->178        -0.10485
     172 ->178         0.44869
     172 ->180        -0.33350
     172 ->181        -0.17884

 Excited State  40:      Singlet-A      5.3850 eV  230.24 nm  f=0.0089  <S**2>=0.000
     165 ->175        -0.15201
     172 ->179         0.42703
     172 ->180        -0.10040
     172 ->181         0.42977

 Excited State  41:      Singlet-A      5.5296 eV  224.22 nm  f=0.0083  <S**2>=0.000
     165 ->175         0.55227
     169 ->177        -0.26517
     171 ->179        -0.14896
     172 ->179         0.11667
     173 ->182         0.13500

 Excited State  42:      Singlet-A      5.5369 eV  223.92 nm  f=0.0000  <S**2>=0.000
     157 ->174         0.16861
     159 ->175        -0.13519
     160 ->174         0.65894

 Excited State  43:      Singlet-A      5.5773 eV  222.30 nm  f=0.0009  <S**2>=0.000
     165 ->175         0.20735
     169 ->177         0.57612
     171 ->179        -0.11312
     171 ->180         0.17420
     172 ->181         0.11011

 Excited State  44:      Singlet-A      5.6327 eV  220.11 nm  f=0.0034  <S**2>=0.000
     167 ->176         0.12045
     168 ->177         0.42686
     170 ->180        -0.20947
     171 ->178        -0.20670
     171 ->179        -0.28275
     171 ->180        -0.17369
     172 ->182         0.15990

 Excited State  45:      Singlet-A      5.6374 eV  219.93 nm  f=0.0000  <S**2>=0.000
     155 ->174        -0.15682
     159 ->174         0.63245
     160 ->175        -0.21030

 Excited State  46:      Singlet-A      5.6645 eV  218.88 nm  f=0.0062  <S**2>=0.000
     158 ->174         0.10606
     161 ->174        -0.10547
     164 ->175         0.11629
     165 ->175        -0.11144
     166 ->176        -0.17844
     168 ->177         0.14048
     170 ->178         0.15578
     171 ->178         0.41418
     171 ->179        -0.26566
     171 ->181         0.18306
     172 ->178         0.10400
     172 ->182        -0.13261

 Excited State  47:      Singlet-A      5.6827 eV  218.18 nm  f=0.0948  <S**2>=0.000
     161 ->174        -0.18383
     164 ->175        -0.12070
     166 ->176         0.12346
     168 ->177         0.29355
     170 ->178         0.15726
     170 ->179         0.11892
     170 ->180         0.15835
     171 ->179         0.13950
     171 ->180         0.33427
     171 ->181        -0.27139

 Excited State  48:      Singlet-A      5.6912 eV  217.85 nm  f=0.0010  <S**2>=0.000
     161 ->174         0.40690
     161 ->175        -0.10996
     166 ->176        -0.18559
     169 ->177        -0.13218
     170 ->179         0.14507
     171 ->180         0.35894
     171 ->181         0.15600

 Excited State  49:      Singlet-A      5.7065 eV  217.27 nm  f=0.0898  <S**2>=0.000
     161 ->174        -0.23134
     164 ->175        -0.10623
     166 ->176         0.27047
     170 ->178        -0.19712
     171 ->178        -0.20713
     171 ->179        -0.11489
     171 ->180         0.17239
     171 ->181         0.36145
     172 ->182        -0.17516

 Excited State  50:      Singlet-A      5.7460 eV  215.77 nm  f=0.0409  <S**2>=0.000
     161 ->174         0.15648
     164 ->175         0.25424
     165 ->175         0.14056
     166 ->176         0.31972
     168 ->177         0.25912
     170 ->178        -0.14042
     170 ->181        -0.22383
     171 ->178         0.16503
     171 ->179         0.20220
     171 ->181         0.14478
     172 ->182         0.10351

 The electronic state is 1-A.
 Alpha  occ. eigenvalues --  -19.16048 -19.16038 -19.16033 -19.16026 -19.16002
 Alpha  occ. eigenvalues --  -19.16000 -19.15970 -19.15593 -10.24423 -10.24414
 Alpha  occ. eigenvalues --  -10.24412 -10.24399 -10.24391 -10.24365 -10.24330
 Alpha  occ. eigenvalues --  -10.24064 -10.23181 -10.23174 -10.23165 -10.23164
 Alpha  occ. eigenvalues --  -10.23161 -10.23151 -10.23143 -10.22972 -10.19717
 Alpha  occ. eigenvalues --  -10.19664 -10.19648 -10.19631 -10.19621 -10.19568
 Alpha  occ. eigenvalues --  -10.19538 -10.18949 -10.18745 -10.18677 -10.18640
 Alpha  occ. eigenvalues --  -10.18608 -10.18602 -10.18594 -10.18578 -10.18537
 Alpha  occ. eigenvalues --  -10.18528 -10.18444 -10.18442 -10.18425 -10.18418
 Alpha  occ. eigenvalues --  -10.18409 -10.18358 -10.18099  -1.05487  -1.05477
 Alpha  occ. eigenvalues --   -1.05465  -1.05392  -1.05388  -1.05368  -1.05366
 Alpha  occ. eigenvalues --   -1.04983  -0.85461  -0.85223  -0.84906  -0.84560
 Alpha  occ. eigenvalues --   -0.80990  -0.80055  -0.78779  -0.77285  -0.75411
 Alpha  occ. eigenvalues --   -0.74790  -0.74688  -0.74613  -0.74102  -0.73004
 Alpha  occ. eigenvalues --   -0.71300  -0.70895  -0.70853  -0.70819  -0.70597
 Alpha  occ. eigenvalues --   -0.69886  -0.66580  -0.66534  -0.66425  -0.65388
 Alpha  occ. eigenvalues --   -0.64822  -0.63103  -0.61647  -0.60666  -0.58263
 Alpha  occ. eigenvalues --   -0.57792  -0.57171  -0.56908  -0.56585  -0.55971
 Alpha  occ. eigenvalues --   -0.55418  -0.55278  -0.53353  -0.52886  -0.52415
 Alpha  occ. eigenvalues --   -0.51767  -0.51626  -0.51256  -0.51237  -0.51113
 Alpha  occ. eigenvalues --   -0.50529  -0.49589  -0.49130  -0.48840  -0.46607
 Alpha  occ. eigenvalues --   -0.46575  -0.46552  -0.46422  -0.46046  -0.46035
 Alpha  occ. eigenvalues --   -0.46031  -0.45848  -0.45128  -0.44832  -0.44741
 Alpha  occ. eigenvalues --   -0.44565  -0.44404  -0.44290  -0.43907  -0.43654
 Alpha  occ. eigenvalues --   -0.43357  -0.43195  -0.42891  -0.42507  -0.42015
 Alpha  occ. eigenvalues --   -0.41706  -0.41374  -0.41331  -0.40597  -0.39821
 Alpha  occ. eigenvalues --   -0.39789  -0.39693  -0.39454  -0.39420  -0.39177
 Alpha  occ. eigenvalues --   -0.38852  -0.38517  -0.37570  -0.37250  -0.36949
 Alpha  occ. eigenvalues --   -0.36867  -0.35542  -0.35412  -0.35255  -0.35135
 Alpha  occ. eigenvalues --   -0.34841  -0.34685  -0.34544  -0.34187  -0.33549
 Alpha  occ. eigenvalues --   -0.33449  -0.33287  -0.33162  -0.32537  -0.32086
 Alpha  occ. eigenvalues --   -0.32068  -0.31657  -0.31452  -0.31297  -0.31112
 Alpha  occ. eigenvalues --   -0.30823  -0.29411  -0.29184  -0.28687  -0.27524
 Alpha  occ. eigenvalues --   -0.25526  -0.23835  -0.22744  -0.22381  -0.21046
 Alpha  occ. eigenvalues --   -0.20521  -0.19207  -0.17390
 Alpha virt. eigenvalues --   -0.08285  -0.05919  -0.03148  -0.00474   0.01603
 Alpha virt. eigenvalues --    0.01627   0.01708   0.01736   0.03339   0.05691
 Alpha virt. eigenvalues --    0.06993   0.07129   0.07272   0.07326   0.07469

 Mulliken charges:
               1
     1  C   -0.100208
     2  C    0.194072
     3  C   -0.060736
     4  C    0.038474
     5  C    0.250616
     6  C   -0.181039
     7  H    0.001045
     8  H   -0.007275
     9  O   -0.331253
    10  H   -0.008479
    11  C    0.175638
    12  H    0.039213
    13  H    0.032010
    14  H    0.032119
    15  O   -0.329581
    16  C    0.175384
    17  H    0.042231
    18  H    0.034348
    19  H    0.034237
    20  C   -0.020514
    21  C   -0.016922
    22  H   -0.005395
    23  C    0.034585
    24  H   -0.007596
    25  C   -0.184096
    26  C    0.226291
    27  C    0.034794
    28  C    0.226056
    29  C   -0.184171
    30  H   -0.012394
    31  H   -0.012188
    32  O   -0.331152
    33  C    0.179908
    34  H    0.041066
    35  H    0.034266
    36  H    0.034330
    37  O   -0.330814
    38  C    0.179884
    39  H    0.041159
    40  H    0.034521
    41  H    0.034401
    42  C   -0.017004
    43  C   -0.017783
    44  H   -0.007115
    45  C    0.035529
    46  H   -0.007161
    47  C   -0.184158
    48  C    0.226952
    49  C    0.034263
    50  C    0.226418
    51  C   -0.183668
    52  H   -0.012017
    53  H   -0.011952
    54  O   -0.330759
    55  O   -0.330818
    56  C    0.179847
    57  H    0.041239
    58  H    0.034540
    59  H    0.034578
    60  C    0.179819
    61  H    0.041228
    62  H    0.034538
    63  H    0.034436
    64  C   -0.015369
    65  C   -0.017640
    66  H   -0.006674
    67  C    0.039179
    68  H   -0.006739
    69  C   -0.184337
    70  C    0.225052
    71  C    0.012221
    72  C    0.218993
    73  C   -0.173510
    74  H   -0.011184
    75  H   -0.015305
    76  O   -0.330588
    77  O   -0.330662
    78  C    0.179353
    79  H    0.041133
    80  H    0.034384
    81  H    0.034470
    82  C    0.178487
    83  H    0.041714
    84  H    0.034697
    85  H    0.034557
    86  C   -0.025801
    87  C   -0.061439
    88  H   -0.000099
    89  H    0.037601
    90  H    0.039718
 Sum of Mulliken charges =  -0.00000

 Dipole moment (field-independent basis, Debye):
    X=             -0.8633    Y=              0.2853    Z=             -0.0094  Tot=              0.9092
 Quadrupole moment (field-independent basis, Debye-Ang):
   XX=           -277.0964   YY=           -194.7017   ZZ=           -294.3425
   XY=            -29.9112   XZ=              0.1780   YZ=              0.0577

 Normal termination of Gaussian 16 at Thu Oct 15 12:06:31 2020.
